<?xml version="1.0"?>
<VTKFile type="UnstructuredGrid"  version="0.1"  >
<UnstructuredGrid>
<Piece  NumberOfPoints="11444" NumberOfCells="45304">
<Points>
<DataArray  type="Float64"  NumberOfComponents="3"  format="ascii">4.898587196589413e-18 -5.849063152381244e-34 -0.039  0.07461912682485294 -9.084901271810272e-18 0.01406153092213489  -4.662069341687669e-18 -0.03751923525400891 0.01064457539046418  -2.049142105997603e-17 0.03751923526364197 0.01064457555869988  4.592425496802574e-18 -5.699087174115059e-34 0.079  4.225031457058369e-18 -3.749399456654644e-34 -0.025  4.225031457058369e-18 -3.749399456654644e-34 0.025  3.252606517456513e-18 0.03299950884880339 0.02078538938141659  4.286263797015737e-18 -4.94920728278413e-34 0.07507999999999999  7.589415207398531e-18 -0.03299950884852577 0.02078538938123912  4.898587196589413e-18 -5.849063152381244e-34 0.039  0.06994447637102211 -8.21392122853927e-18 0.01892963331865695  0.002789987562302247 -3.331330604388514e-19 -0.0389762758159145  0.005579166435877914 -6.661695609668026e-19 -0.03890504402500534  0.008366719004336847 -9.990118756825789e-19 -0.03878612626057653  0.01115180984334775 -1.331560252362187e-18 -0.03861922304231302  0.0139335762267558 -1.663711678860284e-18 -0.03840391041454953  0.01671111753595106 -1.995358618556322e-18 -0.03813963517378881  0.01948348483387582 -2.326387765459098e-18 -0.03782570843331434  0.02224966750764396 -2.656678449294581e-18 -0.03746129761565329  0.02500857925090393 -2.986100961757135e-18 -0.03704541645909484  0.02775904158019803 -3.314514588312311e-18 -0.03657691289351107  0.03049976425454006 -3.641765270234457e-18 -0.03605445452414433  0.03322932230303458 -3.967682861634088e-18 -0.03547651129587028  0.03594612838802798 -4.292077829533481e-18 -0.03484133494724526  0.03864839906309984 -4.614737224967491e-18 -0.03414693480258359  0.04133411416298888 -4.935419834016323e-18 -0.03339104909224149  0.04400096499320289 -5.253849991486263e-18 -0.03257111171194644  0.04664629225899055 -5.569710169438812e-18 -0.03168421264881357  0.04926700527045436 -5.882631330033677e-18 -0.0307270526509897  0.05185948059430301 -6.192180824237603e-18 -0.02969589062599806  0.05441943270727875 -6.49784694744741e-18 -0.0285864834973058  0.05694174599241214 -6.799018879328244e-18 -0.02739401945975581  0.05942025498449335 -7.094960444449735e-18 -0.0261130470431444  0.06184746158460753 -7.384776346835404e-18 -0.02473740198539544  0.06421415197742088 -7.667366428713239e-18 -0.02326015042249458  0.06650890900160286 -7.941367446050565e-18 -0.02167355603832305  0.0687174622594383 -8.20507546965114e-18 -0.01996912338824259  0.07082185073187641 -8.456345898827197e-18 -0.01813778757096663  0.07279940574774864 -8.692472024808955e-18 -0.01617035753093189  0.07462157528196499 -8.910044648348188e-18 -0.01405844266028562  0.07625284749639565 -9.104823547202387e-18 -0.01179612251745557  0.07765029700495563 -9.27168329879612e-18 -0.009382714504601947  0.07876484783748794 -9.404764081977023e-18 -0.006826719006891508  0.07954572743744454 -9.498003497981137e-18 -0.004150261509966152  0.07994903730968229 -9.546159932030937e-18 -0.001391847354962361  0.07994874899184368 -9.546125505997917e-18 0.001395777683440692  0.07954488201310739 -9.49790255172582e-18 0.004154110632425831  0.07876349726282249 -9.404602819225271e-18 0.00683042126573676  0.07764851075275406 -9.271470014812113e-18 0.009386227037149163  0.07625069735820755 -9.104566814117036e-18 0.01179942518979135  0 -0.03818022056746504 0.007954305740155928  0 -0.03864855509974245 0.00522390020786319  0 -0.03892188641791872 0.00246713731130577  0 -0.03899882924883148 -0.0003020725087484731  0 -0.03887896402879287 -0.003069759262273247  0 -0.03856297441460084 -0.005821959244728489  0 -0.03805243648944621 -0.008544789106014136  0 -0.03734987302301602 -0.01122450086874298  0 -0.03645881822738946 -0.01384756621676617  0 -0.03538379706719075 -0.01640075683450968  0 -0.03413026799585668 -0.0188712058450699  0 -0.03270456212773382 -0.02124645636048814  0 -0.03111384215246499 -0.02351450863655294  0 -0.02936609450794426 -0.0256638872189662  0 -0.02747015789501634 -0.02768375793017626  0 -0.02543566640857054 -0.02956399646143995  0 -0.02327281056869768 -0.03129503781810676  0 -0.02099250357776528 -0.03286814043908262  0 -0.0186062830753689 -0.03427540884700823  0 -0.01612620122897844 -0.03550976981890099  0 -0.01356476142910649 -0.03656498451483042  0 -0.01093487190601324 -0.03743569284698389  0 -0.008249797720786932 -0.03811747500330336  0 -0.00552309493227837 -0.03860690744153993  0 -0.00276853096061497 -0.03890157629176521  0.07442129961906707 -0.002735868612979509 0.01404452668495529  0.07384063856169554 -0.00541652171112998 0.01399481803738572  0.07291143965888851 -0.007996780691553466 0.01391590216139888  0.07167994127021046 -0.01044670163467901 0.01381251762366313  0.07019471300105133 -0.01275108925518596 0.01368967985221789  0.06850043499778609 -0.01490588527315082 0.01355204911281732  0.06663526519460906 -0.01691409783673027 0.01340366251108105  0.06463041247850951 -0.01878250079653236 0.01324787435456311  0.06251090693949674 -0.02051951380132587 0.0130874290415101  0.06029668785921218 -0.02213393221645727 0.01292456444913284  0.05800358346461304 -0.02363428964085008 0.01276110710002476  0.05564430295176707 -0.02502845992290062 0.01259856573246873  0.05322905770770656 -0.02632360061932799 0.01243819447528851  0.05076614794733186 -0.02752611733315118 0.01228105016863807  0.04826238414922472 -0.02864170839896295 0.01212803476779094  0.04572340581326107 -0.02967540621986776 0.0119799275918909  0.04315392278562238 -0.03063164841660168 0.01183739782392363  0.04055791418411307 -0.03151435198185422 0.01170103529017649  0.0379387723654758 -0.03232696815263753 0.01157136319866734  0.03529941173887202 -0.03307253673315304 0.0114488458152314  0.03264236386094627 -0.03375373116176426 0.01133389615083685  0.02996984697618595 -0.03437289986224004 0.01122688233539331  0.02728382142129683 -0.03493210153909895 0.01112813290528366  0.02458603692647746 -0.03543313456555107 0.01103794102556943  0.02187806930439135 -0.0358775623240797 0.01095656740998735  0.01916135194435416 -0.0362667343358207 0.01088424204335539  0.0164372007940764 -0.03660180429915339 0.01082116454985059  0.01370683657424483 -0.0368837451579595 0.01076750320449621  0.01097140280003407 -0.03711336055714352 0.01072340368064166  0.008231982061527135 -0.03729129543497581 0.01068898436934905  0.005489610374673075 -0.03741804394274782 0.01066433416726547  0.00274528966197085 -0.03749395471063315 0.01064951810434193  0.002745289686771168 0.03749395474526968 0.01064951870786393  0.00548961041903171 0.03741804404918428 0.01066433590487388  0.008231982112136079 0.03729129570441404 0.01068898896294343  0.01097140287132552 0.03711336081395662 0.01072340867056853  0.01370683671571194 0.03688374519420763 0.01076750426067451  0.01643720100139662 0.03660180430447196 0.01082116321454889  0.01916135214404197 0.03626673435026236 0.01088424215820151  0.02187806951995237 0.03587756249131001 0.01095656871195746  0.02458603717916241 0.03543313477987229 0.01103794216697387  0.0272838216967965 0.03493210156252859 0.01112813302302008  0.02996984724875782 0.03437289958639275 0.01122688153855944  0.03264236413765507 0.03375373078033341 0.0113338952727665  0.03529941209182916 0.03307253668542406 0.01144884575833854  0.0379387728988546 0.0323269688295729 0.01157136422145439  0.0405579149489781 0.03151435336705305 0.01170103666129025  0.04315392373108003 0.03063165014621143 0.01183739841659134  0.04572340718588708 0.02967540902666523 0.01197992826183046  0.04826238734020588 0.02864171628815487 0.01212804012558128  0.05076615004978164 0.02752612244101166 0.01228105347577096  0.05322905875607448 0.02632360328708557 0.01243819620492541  0.05564430336699785 0.02502846126780267 0.01259856655803164  0.05800358354963095 0.02363429030362681 0.01276110744812928  0.06029668778037241 0.02213393254809503 0.01292456456828294  0.06251090678733648 0.02051951398127304 0.01308742906398486  0.06463041230901823 0.0187825009225275 0.01324787434466789  0.06663526505825626 0.0169140979656456 0.01340366249880667  0.06850043492016261 0.01490588542164794 0.01355204910761229  0.07019471290443655 0.01275108936049117 0.01368967983248436  0.0716799411059043 0.01044670165780264 0.01381251759901636  0.07291143962239621 0.007996780754396712 0.01391590215654635  0.07384063855330192 0.005416521759112708 0.0139948180365361  0.0744212996048168 0.002735868634418235 0.01404452668373925  0 0.03818022053624093 0.007954305890032669  0 0.0386485550800568 0.005223900353509794  0 0.03892188640900901 0.002467137451870614  0 0.03899882924987581 -0.0003020723740279004  0 0.03887896403891605 -0.003069759134071638  0 0.03856297443288262 -0.005821959123623837  0 0.03805243651493732 -0.008544788992488426  0 0.03734987305474106 -0.01122450076317837  0 0.0364588182643549 -0.01384756611944512  0 0.03538379710839578 -0.01640075674561399  0 0.03413026804030372 -0.01887120576468214  0 0.03270456217443849 -0.02124645628859317  0 0.03111384220046394 -0.02351450857304086  0 0.02936609455630221 -0.02566388716363386  0 0.02747015794283239 -0.0276837578827289  0 0.02543566645499161 -0.02956399642150021  0 0.02327281061292365 -0.03129503778521844  0 0.02099250361905348 -0.0328681404127133  0 0.01860628311304275 -0.03427540882655737  0 0.01612620126243292 -0.03550976980370774  0 0.0135647614578136 -0.03656498450418021  0 0.01093487192952577 -0.03743569284011576  0 0.0082497977387426 -0.03811747499941738  0 0.005523094944402488 -0.03860690743980565  0 0.002768530966723273 -0.03890157629133054  0 -0.03776312198673543 0.01342251633990897  0 -0.03792137816285516 0.01620665048062016  0 -0.03799447902307176 0.01899432166920657  0 -0.03798264364906404 0.02178292606123328  0 -0.03788583734713112 0.02456987446975116  0 -0.03770377415853698 0.02735255285363422  0 -0.03743590157800674 0.03012828261449654  0 -0.03708140525913342 0.03289428108053905  0 -0.03663920529391888 0.0356476
[...]
<PointData  Vectors="sheet"> 
<DataArray  type="Float64"  Name="sheet"  NumberOfComponents="3" format="ascii">-4.9967099999999998e-01 -8.6612199999999995e-01 -1.2739900000000000e-02  -1.2596400000000001e-02 8.7158700000000000e-01 4.9007800000000001e-01  -4.9678000000000000e-01 2.9560699999999999e-02 8.6737299999999995e-01  -5.0496500000000000e-01 8.7906200000000007e-03 -8.6309499999999995e-01  -5.0007100000000004e-01 8.6556999999999995e-01 2.6780399999999999e-02  -4.9996699999999999e-01 8.6604400000000004e-01 -2.0170499999999999e-04  -5.0032799999999999e-01 -8.6577700000000002e-01 1.0129800000000000e-02  -4.9106499999999997e-01 4.9563099999999999e-01 7.1638299999999999e-01  -5.0003799999999998e-01 -8.6600299999999997e-01 1.2167700000000000e-03  -5.0689700000000004e-01 5.9233400000000003e-01 -6.2625500000000001e-01  -4.9986999999999998e-01 8.6609000000000003e-01 -4.3011999999999998e-03  2.1909500000000001e-01 -9.1309399999999996e-01 3.4388600000000002e-01  -5.0017400000000001e-01 -8.6589400000000005e-01 -7.2922899999999999e-03  -4.9947599999999998e-01 -8.6611099999999996e-01 -1.9408499999999999e-02  -4.9937599999999999e-01 -8.6558000000000002e-01 -3.7343800000000003e-02  -4.9876799999999999e-01 -8.6615100000000000e-01 -3.1840399999999998e-02  -4.9793700000000002e-01 -8.6648599999999998e-01 -3.5491300000000003e-02  -4.9717499999999998e-01 -8.6625300000000005e-01 -4.9223000000000003e-02  -4.9585699999999999e-01 -8.6719000000000002e-01 -4.5906599999999999e-02  -4.9564399999999997e-01 -8.6487899999999995e-01 -7.9511200000000004e-02  -4.9433700000000003e-01 -8.6551100000000003e-01 -8.0759200000000003e-02  -4.9263000000000001e-01 -8.6444500000000002e-01 -1.0025100000000001e-01  -4.9021100000000001e-01 -8.6580500000000005e-01 -1.0037600000000001e-01  -4.8790899999999998e-01 -8.6709899999999995e-01 -1.0041400000000000e-01  -4.8576500000000000e-01 -8.6583200000000005e-01 -1.1985899999999999e-01  -4.8307800000000001e-01 -8.6674499999999999e-01 -1.2404999999999999e-01  -4.7921000000000002e-01 -8.6616300000000002e-01 -1.4184600000000000e-01  -4.7684199999999999e-01 -8.6416499999999996e-01 -1.6075200000000001e-01  -4.7120899999999999e-01 -8.7023200000000001e-01 -1.4373000000000000e-01  -4.6856999999999999e-01 -8.6625300000000005e-01 -1.7334300000000000e-01  -4.6129500000000001e-01 -8.6911499999999997e-01 -1.7845500000000000e-01  -4.5465499999999998e-01 -8.6853899999999995e-01 -1.9730600000000001e-01  -4.5103300000000002e-01 -8.6404499999999995e-01 -2.2359599999999999e-01  -4.4026199999999999e-01 -8.6184700000000003e-01 -2.5177200000000000e-01  -4.3095200000000000e-01 -8.6362499999999998e-01 -2.6159700000000002e-01  -4.1550700000000002e-01 -8.7146400000000002e-01 -2.6058300000000001e-01  -4.0398299999999998e-01 -8.6787199999999998e-01 -2.8913000000000000e-01  -3.8376100000000002e-01 -8.6710600000000004e-01 -3.1757600000000002e-01  -3.6378100000000002e-01 -8.6031500000000005e-01 -3.5710100000000000e-01  -3.3601900000000001e-01 -8.7131599999999998e-01 -3.5763099999999998e-01  -3.0416599999999999e-01 -8.6541999999999997e-01 -3.9816099999999999e-01  -2.6299499999999998e-01 -8.4384300000000001e-01 -4.6772100000000000e-01  -2.1122500000000000e-01 -8.6034400000000000e-01 -4.6388699999999999e-01  -1.6417399999999999e-01 -8.6548199999999997e-01 -4.7327300000000000e-01  -1.0244800000000000e-01 -8.9281400000000000e-01 -4.3862099999999998e-01  4.9684899999999997e-02 -7.9242299999999999e-01 6.0794499999999996e-01  -1.4774700000000000e-02 8.5396799999999995e-01 5.2011499999999999e-01  -9.2347299999999993e-02 8.4485900000000003e-01 5.2695800000000004e-01  -1.4867700000000000e-01 8.9450600000000002e-01 4.2160900000000001e-01  -1.7884100000000000e-01 8.5483600000000004e-01 4.8710500000000001e-01  -1.9810900000000001e-01 8.7276399999999998e-01 4.4613399999999998e-01  -4.9851400000000001e-01 1.1478300000000000e-01 8.5924900000000004e-01  -4.9834899999999999e-01 8.0748600000000004e-02 8.6320799999999998e-01  -4.9856099999999998e-01 3.6541400000000002e-02 8.6608399999999996e-01  -4.9846400000000002e-01 -1.4899300000000001e-02 8.6678200000000005e-01  -4.9827100000000002e-01 -7.4397699999999997e-02 8.6382400000000004e-01  -4.9839000000000000e-01 -1.3166400000000000e-01 8.5689700000000002e-01  -4.9936500000000000e-01 -1.9510300000000000e-01 8.4413800000000005e-01  -4.9869100000000000e-01 -2.5806000000000001e-01 8.2747300000000001e-01  -4.9851699999999999e-01 -3.1619799999999998e-01 8.0715499999999996e-01  -4.9895800000000001e-01 -3.7621100000000002e-01 7.8070899999999999e-01  -4.9916400000000000e-01 -4.2049100000000000e-01 7.5764200000000004e-01  -4.9885800000000002e-01 -4.6971499999999999e-01 7.2836000000000001e-01  -4.9884600000000001e-01 -5.2122999999999997e-01 6.9243900000000003e-01  -4.9895000000000000e-01 -5.6930700000000001e-01 6.5340500000000001e-01  -4.9925599999999998e-01 -6.1402500000000004e-01 6.1132399999999998e-01  -4.9925900000000001e-01 -6.6032700000000000e-01 5.6098899999999996e-01  -4.9931300000000001e-01 -6.9439499999999998e-01 5.1817199999999997e-01  -4.9951000000000001e-01 -7.3083299999999995e-01 4.6515800000000002e-01  -4.9955300000000002e-01 -7.6112700000000000e-01 4.1367999999999999e-01  -4.9961000000000000e-01 -7.8672500000000001e-01 3.6256500000000003e-01  -4.9963500000000000e-01 -8.0898000000000003e-01 3.0970300000000001e-01  -4.9973800000000002e-01 -8.3055299999999999e-01 2.4585099999999999e-01  -4.9981599999999998e-01 -8.4576200000000001e-01 1.8673699999999999e-01  -4.9980999999999998e-01 -8.5673500000000002e-01 1.2725700000000001e-01  -4.9967899999999998e-01 -8.6350499999999997e-01 6.8406800000000004e-02  2.3265500000000001e-02 7.8255600000000003e-01 6.2214599999999998e-01  1.5553400000000001e-01 6.3576600000000005e-01 7.5604899999999997e-01  1.8941700000000000e-01 5.2607700000000002e-01 8.2907399999999998e-01  1.3489999999999999e-01 4.3290699999999999e-01 8.9128799999999997e-01  1.5032400000000001e-01 2.6448899999999997e-01 9.5260100000000003e-01  1.1262300000000000e-01 2.0511399999999999e-01 9.7223700000000002e-01  5.5172899999999997e-02 1.8612899999999999e-01 9.8097500000000004e-01  4.6574800000000000e-02 7.3508699999999996e-02 9.9620600000000004e-01  2.7747700000000000e-02 2.7000900000000001e-02 9.9924999999999997e-01  -5.4283699999999997e-02 -1.7913399999999999e-02 9.9836499999999995e-01  -1.2594100000000000e-01 4.8731199999999999e-03 9.9202599999999996e-01  -9.5923900000000006e-02 -9.2809699999999995e-02 9.9105200000000004e-01  -2.1396599999999999e-01 -8.1211300000000007e-03 9.7680699999999998e-01  -1.7529500000000001e-01 -1.1563000000000000e-01 9.7770199999999996e-01  -2.5109100000000001e-01 -3.6371800000000003e-02 9.6728000000000003e-01  -2.4653000000000000e-01 -9.9064200000000005e-02 9.6405900000000000e-01  -2.8733900000000001e-01 -5.9491200000000001e-02 9.5598000000000005e-01  -3.1261299999999997e-01 -6.5180699999999994e-02 9.4764199999999998e-01  -3.2746599999999998e-01 -5.4455299999999998e-02 9.4329300000000005e-01  -3.4761900000000001e-01 -2.9664900000000001e-02 9.3716699999999997e-01  -3.5155700000000001e-01 -1.0364900000000001e-01 9.3041099999999999e-01  -3.7421199999999999e-01 -6.8849900000000006e-02 9.2478400000000005e-01  -3.8311299999999998e-01 -9.2063500000000006e-02 9.1910199999999997e-01  -4.0185700000000002e-01 -6.3103599999999996e-02 9.1352500000000003e-01  -4.1766500000000001e-01 -3.2734899999999997e-02 9.0801100000000001e-01  -4.3040800000000001e-01 -5.9880400000000000e-02 9.0064599999999995e-01  -4.4258700000000001e-01 -3.3351300000000000e-02 8.9610500000000004e-01  -4.4694899999999999e-01 -5.2756299999999999e-02 8.9300199999999996e-01  -4.6151500000000001e-01 -4.9851899999999998e-02 8.8573100000000005e-01  -4.7023500000000001e-01 -3.0564200000000000e-02 8.8201200000000002e-01  -4.8408299999999999e-01 -2.6229400000000000e-02 8.7462899999999999e-01  -4.9113499999999999e-01 3.6241300000000001e-03 8.7107599999999996e-01  -5.0941099999999995e-01 1.5503700000000000e-02 -8.6038300000000001e-01  -5.1708699999999996e-01 9.4327899999999999e-03 -8.5588100000000000e-01  -5.2319000000000004e-01 5.0979799999999999e-02 -8.5068999999999995e-01  -5.3510300000000000e-01 4.2677699999999999e-02 -8.4370800000000001e-01  -5.4737000000000002e-01 2.3781600000000000e-02 -8.3655299999999999e-01  -5.5329799999999996e-01 4.1116199999999999e-02 -8.3196800000000004e-01  -5.6263799999999997e-01 6.2385599999999999e-02 -8.2434600000000002e-01  -5.6726200000000004e-01 9.9028699999999997e-02 -8.1756200000000001e-01  -5.8761099999999999e-01 8.1770599999999999e-02 -8.0500099999999997e-01  -5.9240899999999996e-01 9.2768100000000006e-02 -8.0027899999999996e-01  -6.0289899999999996e-01 1.0112500000000001e-01 -7.9138299999999995e-01  -6.0307699999999997e-01 1.3682100000000000e-01 -7.8586100000000003e-01  -6.0766600000000004e-01 2.0216600000000001e-01 -7.6802999999999999e-01  -6.2044200000000005e-01 2.1850900000000001e-01 -7.5319700000000001e-01  -6.2187400000000004e-01 2.3186999999999999e-01 -7.4800299999999997e-01  -6.4371000000000000e-01 2.3483299999999999e-01 -7.2834800000000000e-01  -6.4450700000000005e-01 2.4993799999999999e-01 -7.2259399999999996e-01  -6.6139499999999996e-01 2.6816800000000002e-01 -7.0045900000000005e-01  -6.7031700000000005e-01 3.2576600000000000e-01 -6.6674699999999998e-01  -6.8158900000000000e-01 3.5316700000000001e-01 -6.4086600000000005e-01  -6.8736699999999995e-01 4.0020899999999998e-01 -6.0610200000000003e-01  -6.8629499999999999e-01 4.5014100000000001e-01 -5.7128999999999996e-01  -6.9579400000000002e-01 4.7663699999999998e-01 -5.3729700000000002e-01  -6.7218900000000004e-01 5.7282900000000003e-01 -4.6907300000000002e-01  -6.7206999999999995e-01 5.8979599999999999e-01 -4.4773099999999999e-01  -6.7037500000000005e-01 6.5436499999999997e-01 -3.4986299999999998e-01  -6.2832200000000005e-01 7.3449200000000003e-01 -2.5638400000000000e-01  -5.6962199999999996e-01 8.0083400000000005e-01 -1.8492300000000000e-01  -4.9719099999999999e-01 8.6518899999999999e-01 -6.5179600000000004e-02  -4.0720899999999999e-01 9.1306100000000001e-01 2.2374800000000000e-02  -2.7540500000000001e-01 9.4342800000000004e-01 1.8465000000000001e-01  -1.6123799999999999e-01 9.2112499999999997e-01 3.5430200000000001e-01  -5.0161699999999998e-01 1.1890199999999999e-01 -8.5687999999999998e-01  -5.0171299999999996e-01 8.9008400000000001e-02 -8.6044200000000004e-01  -5.0158400000000003e-01 3.5577999999999999e-02 -8.6437699999999995e-01  -5.0144500000000003e-01 -1.0537899999999999e-02 -8.6512599999999995e-01  -5.0188999999999995e-01 -6.0701499999999999e-02 -8.6279899999999998e-01  -5.0226199999999999e-01 -1.2260100000000000e-01 -8.5597999999999996e-01  -5.0157399999999996e-01 -1.8623400000000001e-01 -8.4483200000000003e-01  -5.0139500000000004e-01 -2.4770600000000001e-01 -8.2900200000000002e-01  -5.0130500000000000e-01 -3.0298700000000001e-01 -8.1048900000000001e-01  -5.0103799999999998e-01 -3.6662299999999998e-01 -7.8393100000000004e-01  -5.0123799999999996e-01 -4.1478500000000001e-01 -7.5941700000000001e-01  -5.0106099999999998e-01 -4.7472100000000000e-01 -7.2358699999999998e-01  -5.0084399999999996e-01 -5.2298299999999998e-01 -6.8966899999999998e-01  -5.0087199999999998e-01 -5.6287600000000004e-01 -6.5749400000000002e-01  -5.0070400000000004e-01 -6.1551100000000003e-01 -6.0863900000000004e-01  -5.0054299999999996e-01 -6.5834300000000001e-01 -5.6217499999999998e-01  -5.0063700000000000e-01 -6.9424300000000005e-01 -5.1709700000000003e-01  -5.0056800000000001e-01 -7.2631299999999999e-01 -4.7106300000000001e-01  -5.0042299999999995e-01 -7.5938600000000001e-01 -4.1582400000000003e-01  -5.0036199999999997e-01 -7.8482499999999999e-01 -3.6563299999999999e-01  -5.0038499999999997e-01 -8.1176199999999998e-01 -3.0109500000000000e-01  -5.0029500000000005e-01 -8.3269099999999996e-01 -2.3734100000000000e-01  -5.0019999999999998e-01 -8.4558000000000000e-01 -1.8653200000000000e-01  -5.0029500000000005e-01 -8.5649299999999995e-01 -1.2698100000000001e-01  -5.0046800000000002e-01 -8.6345700000000003e-01 -6.3036999999999996e-02  -4.9623600000000001e-01 -8.9214699999999994e-02 8.6359200000000003e-01  -4.9560799999999999e-01 -1.0815000000000000e-01 8.6178699999999997e-01  -4.9478800000000001e-01 -1.1045300000000000e-01 8.6196499999999998e-01  -4.9383199999999999e-01 -6.7045999999999994e-02 8.6696899999999999e-01  -4.9296299999999998e-01 1.0497500000000000e-02 8.6998699999999995e-01  -4.9319000000000002e-01 5.4540300000000000e-02 8.6821000000000004e-01  -4.9554599999999999e-01 9.0109400000000006e-02 8.6389499999999997e-01  -4.9468699999999999e-01 1.1723699999999999e-01 8.6112699999999998e-01  -4.9184299999999997e-01 1.4567500000000000e-01 8.5841100000000004e-01  -4.9417499999999998e-01 1.7524300000000001e-01 8.5151699999999997e-01  -4.9276900000000001e-01 1.9971200000000000e-01 8.4693200000000002e-01  -4.9288399999999999e-01 2.3168000000000000e-01 8.3868299999999996e-01  -4.9341900000000000e-01 2.6262900000000000e-01 8.2919500000000002e-01  -4.9273099999999997e-01 2.9449300000000000e-01 8.1883499999999998e-01  -4.9442700000000001e-01 3.2505800000000001e-01 8.0615000000000003e-01  -4.9405399999999999e-01 3.5340199999999999e-01 7.9436600000000002e-01  -4.9364400000000003e-01 3.9020600000000000e-01 7.7720999999999996e-01  -4.9444600000000000e-01 4.2054700000000000e-01 7.6070000000000004e-01  -4.9485000000000001e-01 4.6077499999999999e-01 7.3675700000000000e-01  -4.9432900000000002e-01 5.0211300000000003e-01 7.0959300000000003e-01  -4.9482500000000001e-01 5.3940600000000005e-01 6.8131399999999998e-01  -4.9457600000000002e-01 5.8055699999999999e-01 6.4679799999999998e-01  -4.9460799999999999e-01 6.2080800000000003e-01 6.0824299999999998e-01  -4.9503100000000000e-01 6.7130900000000004e-01 5.5162400000000000e-01  -4.9589299999999997e-01 7.1227200000000002e-01 4.9674900000000000e-01  -4.9696400000000002e-01 7.5470599999999999e-01 4.2830499999999999e-01  -4.9728800000000001e-01 7.8951199999999999e-01 3.5968699999999998e-01  -4.9806200000000000e-01 8.1774599999999997e-01 2.8848699999999999e-01  -4.9883400000000000e-01 8.4293099999999999e-01 2.0157400000000000e-01  -4.9847300000000000e-01 8.5800900000000002e-01 1.2387300000000000e-01  -5.0398100000000001e-01 -9.0140499999999998e-02 -8.5899800000000004e-01  -5.0492400000000004e-01 -1.1016800000000000e-01 -8.5610399999999998e-01  -5.0536300000000001e-01 -9.8740599999999998e-02 -8.5723899999999997e-01  -5.0509999999999999e-01 -3.6018300000000003e-02 -8.6230899999999999e-01  -5.0689799999999996e-01 2.4917999999999999e-02 -8.6164600000000002e-01  -5.0708200000000003e-01 6.0545399999999999e-02 -8.5976900000000001e-01  -5.0618500000000000e-01 9.5988199999999996e-02 -8.5706599999999999e-01  -5.0509800000000005e-01 1.2283900000000000e-01 -8.5427600000000004e-01  -5.0810999999999995e-01 1.5251100000000001e-01 -8.4768200000000005e-01  -5.0578999999999996e-01 1.7833900000000000e-01 -8.4402100000000002e-01  -5.0714700000000001e-01 2.0507100000000000e-01 -8.3710700000000005e-01  -5.0653099999999995e-01 2.3207900000000001e-01 -8.3040099999999994e-01  -5.0535699999999995e-01 2.6442199999999999e-01 -8.2139799999999996e-01  -5.0767499999999999e-01 2.9713099999999998e-01 -8.0869000000000002e-01  -5.0595500000000004e-01 3.2660699999999998e-01 -7.9833399999999999e-01  -5.0638300000000003e-01 3.5718100000000003e-01 -7.8485499999999997e-01  -5.0565599999999999e-01 3.9318599999999998e-01 -7.6793000000000000e-01  -5.0477499999999997e-01 4.2887199999999998e-01 -7.4917999999999996e-01  -5.0512400000000002e-01 4.6640900000000002e-01 -7.2616300000000000e-01  -5.0568999999999997e-01 5.0540200000000002e-01 -6.9917600000000002e-01  -5.0514400000000004e-01 5.4277600000000004e-01 -6.7098700000000000e-01  -5.0452200000000003e-01 5.8392200000000005e-01 -6.3599700000000003e-01  -5.0457399999999997e-01 6.2624000000000002e-01 -5.9433000000000002e-01  -5.0436099999999995e-01 6.6522800000000004e-01 -5.5053799999999997e-01  -5.0364100000000001e-01 7.0727600000000002e-01 -4.9609100000000000e-01  -5.0391799999999998e-01 7.5238799999999995e-01 -4.2423899999999998e-01  -5.0303500000000001e-01 7.9092300000000004e-01 -3.4841800000000001e-01  -5.0223099999999998e-01 8.1823000000000001e-01 -2.7975499999999998e-01  -5.0088600000000005e-01 8.4114800000000001e-01 -2.0391999999999999e-01  -5.0039500000000003e-01 8.5961299999999996e-01 -1.0329800000000000e-01  -4.9987399999999999e-01 8.5994899999999996e-01 -1.0302699999999999e-01  -5.0005699999999997e-01 8.4357700000000002e-01 -1.9575799999999999e-01  -5.0040899999999999e-01 8.1569400000000003e-01 -2.9022999999999999e-01  -5.0053599999999998e-01 7.8510300000000000e-01 -3.6479600000000001e-01  -5.0067499999999998e-01 7.5041999999999998e-01 -4.3150200000000000e-01  -5.0085500000000005e-01 6.9860599999999995e-01 -5.1097300000000001e-01  -5.0104000000000004e-01 6.3850399999999996e-01 -5.8418499999999995e-01  -5.0137699999999996e-01 5.6262400000000001e-01 -6.5732500000000005e-01  -5.0163700000000000e-01 4.7877100000000000e-01 -7.2051299999999996e-01  -5.0173900000000005e-01 3.9496799999999999e-01 -7.6958300000000002e-01  -5.0153300000000001e-01 3.1723299999999999e-01 -8.0487699999999995e-01  -5.0157300000000005e-01 2.3267299999999999e-01 -8.3323899999999995e-01  -5.0224100000000005e-01 1.4001800000000000e-01 -8.5331599999999996e-01  -5.0250399999999995e-01 4.2905699999999998e-02 -8.6350899999999997e-01  -5.0199099999999997e-01 -4.1349499999999997e-02 -8.6388399999999999e-01  -5.0188900000000003e-01 -1.4337800000000001e-01 -8.5296499999999997e-01  -5.0197300000000000e-01 -2.4582699999999999e-01 -8.2921199999999995e-01  -5.0181399999999998e-01 -3.3055499999999999e-01 -7.9932199999999998e-01  -5.0089499999999998e-01 -4.0663899999999997e-01 -7.6403500000000002e-01  -5.0084899999999999e-01 -4.8897000000000002e-01 -7.1418400000000004e-01  -5.0048400000000004e-01 -5.6235500000000005e-01 -6.5823500000000001e-01  -5.0050399999999995e-01 -6.2498399999999998e-01 -5.9907400000000000e-01  -5.0031499999999995e-01 -6.9346099999999999e-01 -5.1845500000000000e-01  -5.0030399999999997e-01 -7.4872700000000003e-01 -4.3486100000000000e-01  -5.0020799999999999e-01 -7.8424400000000005e-01 -3.6708700000000000e-01  -5.0031199999999998e-01 -8.1752000000000002e-01 -2.8521700000000000e-01  -5.0014599999999998e-01 -8.4883799999999998e-01 -1.7125699999999999e-01  -5.0016099999999997e-01 -8.6160400000000004e-01 -8.6476100000000000e-02  -4.9981900000000001e-01 -8.6006600000000000e-01 1.0231200000000000e-01  -4.9979000000000001e-01 -8.4290900000000002e-01 1.9928299999999999e-01  -4.9974600000000002e-01 -8.1730300000000000e-01 2.8682600000000003e-01  -4.9988100000000002e-01 -7.8237800000000002e-01 3.7148900000000001e-01  -4.9984800000000001e-01 -7.3543300000000000e-01 4.5748299999999997e-01  -4.9964399999999998e-01 -6.8445400000000001e-01 5.3092300000000003e-01  -4.9948700000000001e-01 -6.2614300000000001e-01 5.9871300000000005e-01  -4.9959500000000001e-01 -5.6543500000000002e-01 6.5626899999999999e-01  -4.9932900000000002e-01 -5.0097300000000000e-01 7.0689199999999996e-01  -4.9871700000000002e-01 -4.1563899999999998e-01 7.6060899999999998e-01  -4.9823299999999998e-01 -3.0581999999999998e-01 8.1131900000000001e-01  -4.9785800000000002e-01 -2.3235900000000001e-01 8.3555199999999996e-01  -4.9828200000000000e-01 -1.4239700000000000e-01 8.5524199999999995e-01  -4.9767400000000001e-01 -4.9638500000000002e-02 8.6594300000000002e-01  -4.9747400000000003e-01 4.2185199999999999e-02 8.6645300000000003e-01  -4.9770999999999999e-01 1.5264800000000001e-01 8.5380500000000004e-01  -4.9820900000000001e-01 2.3297200000000001e-01 8.3517200000000003e-01  -4.9802000000000002e-01 3.1541200000000003e-01 8.0776999999999999e-01  -4.9826700000000002e-01 4.1033799999999998e-01 7.6377499999999998e-01  -4.9870300000000001e-01 4.9004199999999998e-01 7.1495100000000000e-01  -4.9895899999999999e-01 5.5996699999999999e-01 6.6142000000000001e-01  -4.9893799999999999e-01 6.2141100000000005e-01 6.0407699999999998e-01  -4.9902800000000003e-01 6.8028200000000005e-01 5.3683099999999995e-01  -4.9909399999999