<?xml version="1.0"?>
<VTKFile type="UnstructuredGrid"  version="0.1"  >
<UnstructuredGrid>
<Piece  NumberOfPoints="11444" NumberOfCells="98205">
<Points>
<DataArray  type="Float64"  NumberOfComponents="3"  format="ascii">4.898587196589413e-18 -5.849063152381244e-34 -0.039  0.07461912682485294 -9.084901271810272e-18 0.01406153092213489  -4.662069341687669e-18 -0.03751923525400891 0.01064457539046418  -2.049142105997603e-17 0.03751923526364197 0.01064457555869988  4.592425496802574e-18 -5.699087174115059e-34 0.079  4.225031457058369e-18 -3.749399456654644e-34 -0.025  4.225031457058369e-18 -3.749399456654644e-34 0.025  3.252606517456513e-18 0.03299950884880339 0.02078538938141659  4.286263797015737e-18 -4.94920728278413e-34 0.07507999999999999  7.589415207398531e-18 -0.03299950884852577 0.02078538938123912  4.898587196589413e-18 -5.849063152381244e-34 0.039  0.06994447637102211 -8.21392122853927e-18 0.01892963331865695  0.002789987562302247 -3.331330604388514e-19 -0.0389762758159145  0.005579166435877914 -6.661695609668026e-19 -0.03890504402500534  0.008366719004336847 -9.990118756825789e-19 -0.03878612626057653  0.01115180984334775 -1.331560252362187e-18 -0.03861922304231302  0.0139335762267558 -1.663711678860284e-18 -0.03840391041454953  0.01671111753595106 -1.995358618556322e-18 -0.03813963517378881  0.01948348483387582 -2.326387765459098e-18 -0.03782570843331434  0.02224966750764396 -2.656678449294581e-18 -0.03746129761565329  0.02500857925090393 -2.986100961757135e-18 -0.03704541645909484  0.02775904158019803 -3.314514588312311e-18 -0.03657691289351107  0.03049976425454006 -3.641765270234457e-18 -0.03605445452414433  0.03322932230303458 -3.967682861634088e-18 -0.03547651129587028  0.03594612838802798 -4.292077829533481e-18 -0.03484133494724526  0.03864839906309984 -4.614737224967491e-18 -0.03414693480258359  0.04133411416298888 -4.935419834016323e-18 -0.03339104909224149  0.04400096499320289 -5.253849991486263e-18 -0.03257111171194644  0.04664629225899055 -5.569710169438812e-18 -0.03168421264881357  0.04926700527045436 -5.882631330033677e-18 -0.0307270526509897  0.05185948059430301 -6.192180824237603e-18 -0.02969589062599806  0.05441943270727875 -6.49784694744741e-18 -0.0285864834973058  0.05694174599241214 -6.799018879328244e-18 -0.02739401945975581  0.05942025498449335 -7.094960444449735e-18 -0.0261130470431444  0.06184746158460753 -7.384776346835404e-18 -0.02473740198539544  0.06421415197742088 -7.667366428713239e-18 -0.02326015042249458  0.06650890900160286 -7.941367446050565e-18 -0.02167355603832305  0.0687174622594383 -8.20507546965114e-18 -0.01996912338824259  0.07082185073187641 -8.456345898827197e-18 -0.01813778757096663  0.07279940574774864 -8.692472024808955e-18 -0.01617035753093189  0.07462157528196499 -8.910044648348188e-18 -0.01405844266028562  0.07625284749639565 -9.104823547202387e-18 -0.01179612251745557  0.07765029700495563 -9.27168329879612e-18 -0.009382714504601947  0.07876484783748794 -9.404764081977023e-18 -0.006826719006891508  0.07954572743744454 -9.498003497981137e-18 -0.004150261509966152  0.07994903730968229 -9.546159932030937e-18 -0.001391847354962361  0.07994874899184368 -9.546125505997917e-18 0.001395777683440692  0.07954488201310739 -9.49790255172582e-18 0.004154110632425831  0.07876349726282249 -9.404602819225271e-18 0.00683042126573676  0.07764851075275406 -9.271470014812113e-18 0.009386227037149163  0.07625069735820755 -9.104566814117036e-18 0.01179942518979135  0 -0.03818022056746504 0.007954305740155928  0 -0.03864855509974245 0.00522390020786319  0 -0.03892188641791872 0.00246713731130577  0 -0.03899882924883148 -0.0003020725087484731  0 -0.03887896402879287 -0.003069759262273247  0 -0.03856297441460084 -0.005821959244728489  0 -0.03805243648944621 -0.008544789106014136  0 -0.03734987302301602 -0.01122450086874298  0 -0.03645881822738946 -0.01384756621676617  0 -0.03538379706719075 -0.01640075683450968  0 -0.03413026799585668 -0.0188712058450699  0 -0.03270456212773382 -0.02124645636048814  0 -0.03111384215246499 -0.02351450863655294  0 -0.02936609450794426 -0.0256638872189662  0 -0.02747015789501634 -0.02768375793017626  0 -0.02543566640857054 -0.02956399646143995  0 -0.02327281056869768 -0.03129503781810676  0 -0.02099250357776528 -0.03286814043908262  0 -0.0186062830753689 -0.03427540884700823  0 -0.01612620122897844 -0.03550976981890099  0 -0.01356476142910649 -0.03656498451483042  0 -0.01093487190601324 -0.03743569284698389  0 -0.008249797720786932 -0.03811747500330336  0 -0.00552309493227837 -0.03860690744153993  0 -0.00276853096061497 -0.03890157629176521  0.07442129961906707 -0.002735868612979509 0.01404452668495529  0.07384063856169554 -0.00541652171112998 0.01399481803738572  0.07291143965888851 -0.007996780691553466 0.01391590216139888  0.07167994127021046 -0.01044670163467901 0.01381251762366313  0.07019471300105133 -0.01275108925518596 0.01368967985221789  0.06850043499778609 -0.01490588527315082 0.01355204911281732  0.06663526519460906 -0.01691409783673027 0.01340366251108105  0.06463041247850951 -0.01878250079653236 0.01324787435456311  0.06251090693949674 -0.02051951380132587 0.0130874290415101  0.06029668785921218 -0.02213393221645727 0.01292456444913284  0.05800358346461304 -0.02363428964085008 0.01276110710002476  0.05564430295176707 -0.02502845992290062 0.01259856573246873  0.05322905770770656 -0.02632360061932799 0.01243819447528851  0.05076614794733186 -0.02752611733315118 0.01228105016863807  0.04826238414922472 -0.02864170839896295 0.01212803476779094  0.04572340581326107 -0.02967540621986776 0.0119799275918909  0.04315392278562238 -0.03063164841660168 0.01183739782392363  0.04055791418411307 -0.03151435198185422 0.01170103529017649  0.0379387723654758 -0.03232696815263753 0.01157136319866734  0.03529941173887202 -0.03307253673315304 0.0114488458152314  0.03264236386094627 -0.03375373116176426 0.01133389615083685  0.02996984697618595 -0.03437289986224004 0.01122688233539331  0.02728382142129683 -0.03493210153909895 0.01112813290528366  0.02458603692647746 -0.03543313456555107 0.01103794102556943  0.02187806930439135 -0.0358775623240797 0.01095656740998735  0.01916135194435416 -0.0362667343358207 0.01088424204335539  0.0164372007940764 -0.03660180429915339 0.01082116454985059  0.01370683657424483 -0.0368837451579595 0.01076750320449621  0.01097140280003407 -0.03711336055714352 0.01072340368064166  0.008231982061527135 -0.03729129543497581 0.01068898436934905  0.005489610374673075 -0.03741804394274782 0.01066433416726547  0.00274528966197085 -0.03749395471063315 0.01064951810434193  0.002745289686771168 0.03749395474526968 0.01064951870786393  0.00548961041903171 0.03741804404918428 0.01066433590487388  0.008231982112136079 0.03729129570441404 0.01068898896294343  0.01097140287132552 0.03711336081395662 0.01072340867056853  0.01370683671571194 0.03688374519420763 0.01076750426067451  0.01643720100139662 0.03660180430447196 0.01082116321454889  0.01916135214404197 0.03626673435026236 0.01088424215820151  0.02187806951995237 0.03587756249131001 0.01095656871195746  0.02458603717916241 0.03543313477987229 0.01103794216697387  0.0272838216967965 0.03493210156252859 0.01112813302302008  0.02996984724875782 0.03437289958639275 0.01122688153855944  0.03264236413765507 0.03375373078033341 0.0113338952727665  0.03529941209182916 0.03307253668542406 0.01144884575833854  0.0379387728988546 0.0323269688295729 0.01157136422145439  0.0405579149489781 0.03151435336705305 0.01170103666129025  0.04315392373108003 0.03063165014621143 0.01183739841659134  0.04572340718588708 0.02967540902666523 0.01197992826183046  0.04826238734020588 0.02864171628815487 0.01212804012558128  0.05076615004978164 0.02752612244101166 0.01228105347577096  0.05322905875607448 0.02632360328708557 0.01243819620492541  0.05564430336699785 0.02502846126780267 0.01259856655803164  0.05800358354963095 0.02363429030362681 0.01276110744812928  0.06029668778037241 0.02213393254809503 0.01292456456828294  0.06251090678733648 0.02051951398127304 0.01308742906398486  0.06463041230901823 0.0187825009225275 0.01324787434466789  0.06663526505825626 0.0169140979656456 0.01340366249880667  0.06850043492016261 0.01490588542164794 0.01355204910761229  0.07019471290443655 0.01275108936049117 0.01368967983248436  0.0716799411059043 0.01044670165780264 0.01381251759901636  0.07291143962239621 0.007996780754396712 0.01391590215654635  0.07384063855330192 0.005416521759112708 0.0139948180365361  0.0744212996048168 0.002735868634418235 0.01404452668373925  0 0.03818022053624093 0.007954305890032669  0 0.0386485550800568 0.005223900353509794  0 0.03892188640900901 0.002467137451870614  0 0.03899882924987581 -0.0003020723740279004  0 0.03887896403891605 -0.003069759134071638  0 0.03856297443288262 -0.005821959123623837  0 0.03805243651493732 -0.008544788992488426  0 0.03734987305474106 -0.01122450076317837  0 0.0364588182643549 -0.01384756611944512  0 0.03538379710839578 -0.01640075674561399  0 0.03413026804030372 -0.01887120576468214  0 0.03270456217443849 -0.02124645628859317  0 0.03111384220046394 -0.02351450857304086  0 0.02936609455630221 -0.02566388716363386  0 0.02747015794283239 -0.0276837578827289  0 0.02543566645499161 -0.02956399642150021  0 0.02327281061292365 -0.03129503778521844  0 0.02099250361905348 -0.0328681404127133  0 0.01860628311304275 -0.03427540882655737  0 0.01612620126243292 -0.03550976980370774  0 0.0135647614578136 -0.03656498450418021  0 0.01093487192952577 -0.03743569284011576  0 0.0082497977387426 -0.03811747499941738  0 0.005523094944402488 -0.03860690743980565  0 0.002768530966723273 -0.03890157629133054  0 -0.03776312198673543 0.01342251633990897  0 -0.03792137816285516 0.01620665048062016  0 -0.03799447902307176 0.01899432166920657  0 -0.03798264364906404 0.02178292606123328  0 -0.03788583734713112 0.02456987446975116  0 -0.03770377415853698 0.02735255285363422  0 -0.03743590157800674 0.03012828261449654  0 -0.03708140525913342 0.03289428108053905  0 -0.03663920529391888 0.0356476
[...]
<CellData  Scalars="f">
<DataArray  type="Float64"  Name="f"  format="ascii">40 40 0 40 10 0 40 10 0 0 0 0 0 10 0 0 0 0 0 0 40 40 0 0 40 40 0 0 0 40 40 0 0 40 40 0 0 0 0 0 0 0 0 0 0 0 0 0 40 10 0 40 40 0 0 10 40 0 0 10 0 0 0 0 0 40 40 0 0 0 40 10 0 10 40 0 0 10 0 0 0 0 0 0 0 10 40 0 0 10 40 0 40 40 0 0 10 0 0 0 40 0 0 0 0 0 0 10 30 0 10 30 0 30 30 0 0 10 0 0 0 0 0 0 10 30 0 10 30 0 30 30 0 0 10 0 0 0 0 0 0 10 20 0 10 20 0 20 20 0 0 0 10 10 0 0 10 10 0 0 0 0 0 0 0 0 0 10 20 0 10 20 0 20 20 0 10 0 0 0 0 0 0 0 10 20 0 10 20 0 20 20 0 0 0 10 10 0 0 10 10 0 0 0 0 0 0 0 0 0 0 0 0 10 20 0 10 20 0 20 20 0 10 0 0 0 0 0 0 0 20 20 0 20 20 0 0 20 20 0 0 0 20 20 0 0 0 0 0 0 0 0 0 0 0 40 40 0 40 40 0 0 0 40 0 0 40 40 0 40 0 0 0 40 0 0 0 0 40 40 0 40 0 0 0 40 0 0 0 0 0 0 0 40 40 0 0 0 40 40 0 40 0 0 0 0 40 0 0 0 0 0 0 0 0 0 40 40 0 40 0 0 40 0 0 40 40 0 40 0 0 0 0 40 0 0 0 0 0 0 40 40 0 0 40 0 0 40 0 0 0 0 40 40 0 40 0 0 0 40 0 0 0 0 0 0 40 40 0 40 0 0 0 40 0 0 0 0 0 0 0 40 40 0 0 40 0 0 0 40 0 0 0 0 0 0 40 40 0 40 0 0 0 0 40 0 0 0 0 0 0 0 0 40 40 0 40 0 0 40 0 0 40 40 0 40 0 0 0 40 0 0 0 0 40 40 0 0 40 0 0 0 40 0 0 0 0 0 0 40 40 0 0 40 0 0 40 0 0 0 0 0 0 40 40 0 0 40 0 0 0 0 40 0 0 0 0 0 0 0 40 40 0 40 0 0 0 40 0 0 0 0 0 0 40 40 0 40 0 0 0 0 40 0 0 0 0 0 0 40 40 0 0 40 0 0 0 40 0 0 0 40 40 0 40 0 0 0 40 0 0 0 0 0 0 0 0 0 40 40 0 0 40 0 0 40 0 0 0 0 40 40 0 0 40 0 0 0 40 0 0 0 0 0 0 0 0 40 40 0 0 40 0 0 0 40 0 0 0 0 0 40 40 0 40 0 0 0 40 0 0 0 0 0 0 40 40 0 40 0 0 0 40 0 0 0 0 40 40 0 40 0 0 0 40 0 0 0 0 40 40 0 40 0 0 0 0 40 0 0 0 0 0 0 40 40 0 40 0 0 0 40 0 0 0 0 40 40 0 40 0 0 0 40 0 0 0 0 0 0 0 40 40 0 40 0 0 0 40 0 0 0 0 40 40 0 40 0 0 40 0 0 40 40 0 0 40 0 0 0 40 0 0 0 0 0 0 40 40 0 40 0 0 0 40 0 0 0 0 0 0 40 40 0 0 40 0 0 0 0 40 0 0 0 0 0 0 0 0 40 40 0 0 40 0 0 0 40 0 0 0 0 0 40 40 0 0 40 0 0 40 0 0 0 0 0 0 40 40 0 0 40 0 0 0 0 40 0 0 0 0 0 0 0 0 0 0 40 0 0 40 0 0 0 0 0 0 40 10 0 40 0 0 0 10 0 0 0 0 40 10 0 40 0 0 0 10 0 0 0 0 40 10 0 40 0 0 0 10 0 0 0 0 40 10 0 40 0 0 0 10 0 0 0 0 40 10 0 40 0 0 0 10 0 0 0 0 40 10 0 40 40 0 0 0 0 10 0 0 0 0 40 10 0 40 0 0 0 10 0 0 0 0 40 10 0 40 0 0 0 10 10 0 0 0 0 0 40 10 0 40 0 0 0 10 0 0 0 0 40 10 0 40 0 0 0 10 0 0 0 0 40 10 0 40 0 0 10 0 0 40 10 0 40 0 0 0 10 0 0 0 0 40 10 0 40 0 0 0 10 0 0 0 0 40 10 0 40 0 0 0 10 0 0 0 0 40 10 0 40 0 0 0 10 0 0 0 0 40 10 0 40 0 0 0 10 0 0 0 0 40 10 0 40 0 0 0 10 0 0 0 0 40 10 0 40 0 0 0 10 0 0 0 0 40 10 0 40 0 0 0 10 0 0 0 0 40 10 0 40 0 0 0 10 0 0 0 0 40 10 0 40 0 0 0 10 0 0 0 0 40 10 0 40 0 0 0 10 0 0 0 0 40 10 0 40 0 0 0 10 0 0 0 0 40 10 0 40 0 0 0 10 0 0 0 0 40 0 0 0 10 0 0 0 0 40 40 0 0 40 0 0 0 40 0 0 0 0 0 0 0 40 40 0 0 40 0 0 0 0 40 0 0 0 0 0 0 0 0 0 0 0 0 0 40 40 0 0 40 0 0 40 0 0 0 0 0 0 40 40 0 40 0 0 0 0 40 0 0 0 0 0 0 0 0 40 40 0 0 40 0 0 0 0 40 0 0 0 0 0 0 0 0 0 0 0 40 40 0 0 40 0 0 0 40 0 0 0 0 0 0 0 0 40 40 0 0 40 0 0 0 40 0 0 0 0 0 40 40 0 0 0 40 0 0 0 40 0 0 0 0 0 0 0 0 0 0 40 40 0 40 0 0 0 40 0 0 0 0 0 0 0 0 40 40 0 0 40 0 0 0 0 40 0 0 0 0 0 0 0 0 0 0 0 40 40 0 0 40 0 0 0 0 40 0 0 0 0 0 0 0 40 40 0 0 40 0 0 40 0 0 0 0 0 0 0 0 0 40 40 0 0 40 0 0 0 0 0 40 0 0 0 0 0 0 0 0 0 40 40 0 0 40 0 0 40 0 0 0 0 0 0 0 0 0 40 40 0 0 40 0 0 0 0 40 0 0 0 0 0 0 0 40 40 0 0 40 0 0 40 0 0 0 0 0 0 0 0 0 40 40 0 0 40 0 0 0 40 0 0 0 0 0 40 40 0 0 40 0 0 0 0 40 0 0 0 0 0 0 0 0 0 0 40 40 0 0 40 0 0 40 0 0 0 0 0 0 40 40 0 40 0 0 0 40 0 0 0 40 40 0 0 0 40 0 0 0 40 0 0 0 0 0 0 0 0 0 0 0 40 40 0 0 40 0 0 0 40 0 0 0 0 0 0 0 40 40 0 40 0 0 0 40 0 0 0 0 0 0 0 0 0 40 40 0 0 40 0 0 0 40 0 0 0 0 0 0 40 40 0 40 40 0 0 0 0 40 0 0 0 0 0 0 40 40 0 0 0 40 0 0 0 40 0 0 0 0 0 0 0 0 0 0 0 40 40 0 0 0 40 0 0 0 40 0 0 0 0 0 0 0 0 0 40 40 0 0 40 0 0 40 0 0 0 0 0 0 0 0 40 40 0 0 0 40 0 0 0 0 40 0 0 0 0 0 0 0 0 0 0 0 0 0 0 0 40 40 0 40 0 0 0 40 0 0 0 0 0 0 0 0 40 40 0 0 0 40 0 0 0 40 0 0 0 0 0 0 0 0 0 0 0 40 0 0 0 0 0 0 0 0 40 0 0 0 0 0 0 0 0 40 40 0 0 40 0 0 0 40 0 0 0 0 0 0 0 0 0 0 40 40 0 0 0 40 0 0 0 40 0 0 0 0 0 0 0 0 0 0 0 0 0 40 40 0 0 40 0 0 0 40 0 0 0 0 0 0 0 40 40 0 0 40 0 0 0 40 0 0 0 0 0 0 0 0 40 40 0 0 0 40 0 0 40 0 0 0 0 0 0 0 0 40 40 0 0 40 0 0 0 40 0 0 0 0 0 0 0 0 0 0 40 40 0 0 0 40 0 0 0 40 0 0 0 0 0 0 0 0 0 0 40 40 0 40 40 0 0 0 0 40 0 0 0 0 0 0 0 0 40 40 0 0 40 0 0 40 0 0 0 0 0 0 0 40 40 0 0 40 0 0 0 40 0 0 0 0 0 0 0 0 40 40 0 0 0 40 0 0 0 40 0 0 0 0 0 0 0 0 0 0 40 40 0 0 40 0 0 0 40 0 0 0 0 0 0 0 0 0 0 0 0 0 40 40 0 0 40 0 0 0 40 0 0 0 0 0 0 0 0 40 40 0 0 40 0 0 40 0 0 0 0 0 0 40 40 0 40 0 0 0 0 40 0 0 0 0 0 0 0 0 40 40 0 0 0 40 0 0 0 40 0 0 0 0 0 40 40 0 0 40 0 0 0 40 0 0 0 0 0 0 0 0 0 0 40 40 0 0 40 0 0 0 40 0 0 0 0 0 0 0 0 0 0 0 40 40 0 0 40 0 0 40 0 0 0 0 0 0 40 40 0 0 40 0 0 0 40 0 0 0 0 0 0 0 0 40 40 0 40 0 0 0 40 0 0 0 0 0 0 40 40 0 0 0 40 0 0 0 40 0 0 0 0 0 0 0 0 40 40 0 40 0 0 0 0 40 0 0 0 0 0 0 0 0 0 0 40 40 0 0 40 0 0 0 40 0 0 0 40 40 0 0 40 0 0 0 0 40 0 0 0 0 0 0 0 0 0 0 40 40 0 0 40 0 0 0 40 0 0 0 0 0 0 0 0 40 40 0 40 0 0 40 0 0 0 0 40 40 0 0 40 0 0 0 0 40 0 0 0 0 0 0 0 0 40 40 0 0 40 0 0 40 0 0 0 0 0 0 40 40 0 0 40 0 0 0 40 0 0 0 0 0 0 0 0 40 40 0 0 40 0 0 0 40 0 0 0 0 0 0 0 0 0 0 0 40 0 0 0 40 0 0 0 0 0 40 10 0 40 0 0 0 10 0 0 0 0 40 10 0 40 0 0 0 10 0 0 0 0 40 10 0 40 0 0 0 10 0 0 0 0 40 10 0 40 0 0 10 0 0 40 10 0 40 0 0 0 10 0 0 0 0 40 10 0 40 40 0 0 0 0 10 0 0 0 0 40 10 0 40 0 0 0 10 0 0 0 0 40 10 0 40 0 0 0 10 0 0 0 0 40 10 0 40 0 0 0 10 0 0 10 0 0 0 40 10 0 40 0 0 10 0 0 40 10 0 40 0 0 0 10 0 0 0 0 40 10 0 40 0 0 0 10 0 0 0 0 40 10 0 40 0 0 10 0 0 40 10 0 40 0 0 0 10 0 0 0 0 40 10 0 40 0 0 0 10 0 0 0 0 40 10 0 40 0 0 0 10 0 0 0 0 40 10 0 40 0 0 0 10 0 0 0 0 40 10 0 40 0 0 0 10 10 0 0 0 0 0 40 10 0 40 0 0 0 10 0 0 0 0 40 10 0 40 0 0 0 10 0 0 0 0 40 10 0 40 0 0 0 0 10 0 0 0 0 0 0 40 10 0 40 0 0 0 10 0 0 0 0 40 10 0 40 0 0 10 0 0 40 10 0 40 0 0 0 0 10 0 0 0 0 0 0 40 0 0 10 0 0 10 40 0 10 0 0 0 40 0 0 0 0 10 40 0 10 0 0 0 40 0 0 0 0 10 40 0 10 0 0 0 40 0 0 0 0 10 40 0 10 0 0 0 40 0 0 0 0 10 40 0 10 0 0 0 40 0 0 0 0 10 40 0 10 0 0 0 40 0 0 0 0 10 40 0 10 0 0 0 40 0 0 0 0 10 40 0 10 0 0 0 40 0 0 0 0 10 40 0 10 0 0 0 0 40 0 0 0 0 0 0 10 40 0 10 0 0 40 0 0 10 40 0 10 0 0 0 40 0 0 0 0 10 40 0 10 0 0 0 40 0 0 0 0 10 40 0 10 0 0 0 40 0 0 0 0 10 40 0 10 0 0 0 40 40 0 0 0 0 0 10 40 0 10 0 0 0 40 0 0 0 0 10 40 0 10 0 0 0 40 0 0 0 0 10 40 0 10 0 0 0 40 0 0 0 0 10 40 0 10 0 0 0 40 0 0 0 0 10 40 0 10 0 0 0 40 0 0 0 0 10 40 0 10 0 0 0 40 0 0 0 0 10 40 0 10 0 0 0 40 0 0 0 0 10 40 0 10 0 0 0 40 0 0 0 0 10 40 0 10 0 0 0 40 0 0 0 0 10 40 0 10 0 0 0 40 0 0 0 0 10 40 0 10 0 0 0 40 0 0 0 0 10 40 0 10 0 0 0 40 0 0 0 0 10 40 0 10 0 0 0 40 0 0 0 0 10 40 0 0 0 40 0 0 0 0 10 40 0 10 0 0 0 40 0 0 0 0 10 0 0 0 40 0 0 0 40 0 0 0 0 0 0 0 0 0 0 10 40 0 10 0 0 0 40 0 0 0 0 10 40 0 10 0 0 0 40 0 0 0 0 10 40 0 10 0 0 0 40 0 0 0 0 10 40 0 10 0 0 0 40 0 0 0 0 10 40 0 10 0 0 0 40 0 0 0 0 10 40 0 10 0 0 0 40 0 0 0 0 10 40 0 10 0 0 0 0 40 0 0 0 0 0 0 10 40 0 10 0 0 40 0 0 10 40 0 10 0 0 0 0 40 0 0 0 0 0 0 10 40 0 10 0 0 40 0 0 10 40 0 10 0 0 0 40 0 0 0 0 10 40 0 10 0 0 0 40 0 0 0 0 10 40 0 10 0 0 0 40 0 0 0 0 10 40 0 10 0 0 0 40 40 0 0 0 0 0 10 40 0 10 0 0 0 40 0 0 0 0 10 40 0 10 0 0 0 40 0 0 0 0 10 40 0 10 0 0 0 40 0 0 0 0 10 40 0 10 0 0 0 40 0 0 0 0 10 40 0 10 0 0 0 40 0 0 0 0 10 40 0 10 0 0 0 40 0 0 0 0 10 40 0 10 0 0 0 40 0 0 0 0 10 40 0 10 0 0 0 40 0 0 0 0 10 40 0 10 0 0 0 40 0 0 0 0 10 40 0 10 0 0 0 40 0 0 0 0 10 40 0 10 0 0 0 40 0 0 0 0 10 40 0 10 0 0 0 0 40 0 0 0 0 0 0 10 40 0 10 0 0 0 40 0 0 0 0 10 40 0 0 0 40 0 0 0 0 10 40 0 10 0 0 0 40 0 0 0 0 10 0 0 0 0 40 0 0 0 0 0 0 10 30 0 10 0 0 0 30 0 0 0 0 10 30 0 10 0 0 0 30 0 0 0 0 10 30 0 10 0 0 0 30 0 0 0 0 10 30 0 10 0 0 30 0 0 10 30 0 10 0 0 0 30 0 0 0 0 10 30 0 10 0 0 0 30 0 0 0 0 10 30 0 10 0 0 0 30 0 0 0 0 10 30 0 10 0 0 0 30 0 0 0 0 10 30 0 10 0 0 0 30 0 0 0 0 10 30 0 10 0 0 0 30 0 0 0 0 10 30 0 10 0 0 0 30 0 0 0 0 10 30 0 10 0 0 0 30 0 0 0 0 10 30 0 10 0 0 0 30 0 0 0 0 10 30 0 10 0 0 0 30 0 0 0 0 10 30 0 10 0 0 0 30 0 0 0 0 10 30 0 10 0 0 0 0 30 0 0 0 0 0 0 10 30 0 10 0 0 0 30 0 0 0 0 10 30 0 10 0 0 0 30 0 0 0 0 10 30 0 10 0 0 30 0 0 10 30 0 10 0 0 0 0 30 0 0 0 0 0 0 10 30 0 10 0 0 30 0 0 10 30 0 10 0 0 0 0 30 0 0 0 0 0 0 10 30 0 10 10 0 0 0 0 30 0 0 0 0 10 30 0 10 0 0 0 30 0 0 0 0 10 30 0 10 0 0 30 0 0 10 30 0 10 0 0 0 30 0 0 0 0 10 30 0 10 0 0 0 30 0 0 0 0 10 0 0 0 30 0 0 0 0 10 30 0 10 0 10 0 0 0 30 0 0 0 0 10 30 0 10 0 0 0 30 0 0 0 0 10 30 0 10 0 0 0 30 0 0 0 0 10 30 0 10 0 0 0 30 0 0 0 0 10 30 0 10 0 0 0 30 0 0 0 0 10 30 0 10 10 0 0 0 0 30 0 0 0 0 10 30 0 10 0 0 0 30 0 0 0 0 10 30 0 10 0 0 0 30 0 0 0 0 10 30 0 10 0 0 0 30 0 0 0 0 10 30 0 10 0 0 0 0 30 0 0 0 0 0 0 10 30 0 10 0 0 0 30 0 0 0 0 10 30 0 10 0 0 0 30 0 0 0 0 10 30 0 10 0 0 0 30 0 0 0 0 10 30 0 10 0 0 0 30 0 0 0 0 10 30 0 10 0 0 0 30 0 0 0 0 10 30 0 10 0 0 0 30 0 0 0 0 10 30 0 10 0 0 30 0 0 10 30 0 10 0 0 0 30 0 0 0 0 10 30 0 10 0 0 0 30 0 0 0 0 10 30 0 10 0 0 0 30 0 0 0 0 10 30 0 10 0 0 0 30 0 0 0 0 10 30 0 10 0 0 0 30 0 0 0 0 10 30 0 10 0 0 0 30 0 0 0 0 10 30 0 10 0 0 0 0 30 0 0 0 0 0 0 10 30 0 10 0 0 30 0 0 10 30 0 10 0 0 0 30 0 0 0 0 10 30 0 10 0 0 0 30 0 0 0 0 10 0 0 0 30 0 0 0 0 10 20 0 10 0 0 0 20 0 0 0 0 10 20 0 10 0 0 0 20 0 0 0 0 10 20 0 10 0 0 0 20 0 0 0 0 10 20 0 10 0 0 0 20 0 0 0 0 10 20 0 10 0 0 0 0 20 0 0 0 0 0 0 10 20 0 10 0 0 20 0 0 10 20 0 10 0 0 0 20 0 0 0 0 10 20 0 10 0 0 0 20 0 0 0 0 10 20 0 10 0 0 0 20 0 0 0 0 10 20 0 10 0 0 0 20 0 0 0 0 10 20 0 10 0 0 0 20 0 0 0 0 10 20 0 10 0 0 10 0 0 0 20 0 0 0 0 0 0 10 20 0 10 0 0 0 20 0 0 0 0 10 20 0 10 0 0 0 20 0 0 0 0 10 20 0 10 0 0 0 20 0 0 0 0 10 20 0 10 0 0 0 20 0 0 0 0 10 20 0 10 0 0 0 20 0 0 0 0 10 20 0 10 0 0 0 20 0 0 0 0 10 20 0 10 0 0 0 20 0 0 0 0 10 20 0 10 0 0 0 0 20 0 0 0 0 0 0 10 20 0 10 0 0 0 20 0 0 0 0 10 20 0 10 0 0 0 0 20 0 0 0 0 0 0 10 20 0 10 0 0 0 20 0 0 0 0 10 0 0 0 0 20 0 0 0 0 0 0 10 20 0 10 0 0 0 20 0 0 0 0 10 20 0 10 0 0 0 20 0 0 0 0 10 20 0 10 0 0 0 20 0 0 0 0 10 20 0 10 0 0 0 20 0 0 0 0 10 20 0 10 0 0 0 0 20 0 0 0 0 0 0 10 20 0 10 0 0 20 0 0 10 20 0 10 0 0 0 20 0 0 0 0 10 20 0 10 0 0 0 20 0 0 0 0 10 20 0 10 0 0 0 20 0 0 0 0 10 20 0 10 0 0 0 20 0 0 0 0 10 20 0 10 0 0 0 0 20 0 0 0 0 0 0 10 20 0 10 0 10 0 0 0 20 0 0 0 0 10 20 0 10 0 0 0 20 0 0 0 0 10 20 0 10 0 0 0 20 0 0 0 0 10 20 0 10 0 0 0 20 0 0 0 0 10 20 0 10 0 0 0 20 0 0 0 0 10 20 0 10 0 0 0 20 0 0 0 0 10 20 0 10 0 0 0 20 0 0 0 0 10 20 0 10 0 0 0 20 0 0 0 0 10 20 0 10 0 0 0 20 0 0 0 0 10 20 0 10 0 0 0 20 0 0 0 0 10 20 0 10 0 0 0 20 0 0 0 0 10 20 0 10 0 0 0 0 0 0 0 0 0 0 20 0 20 0 0 0 10 0 0 0 20 0 0 0 0 10 20 0 10 0 0 20 0 0 10 20 0 10 0 0 0 20 0 0 0 0 10 20 0 10 0 0 0 20 0 0 0 0 10 20 0 10 0 0 0 20 0 0 0 0 10 20 0 10 0 0 0 20 0 0 0 0 10 20 0 10 0 0 0 20 0 0 0 0 10 20 0 10 0 0 0 20 0 0 0 0 10 20 0 10 10 0 0 0 0 20 0 0 0 0 10 20 0 10 0 0 0 20 0 0 0 0 10 20 0 10 0 0 0 20 0 0 0 0 10 20 0 10 10 0 0 0 0 20 0 0 0 0 10 20 0 10 0 0 0 20 0 0 0 0 10 20 0 10 0 0 0 20 0 0 0 0 10 0 0 0 20 0 0 0 0 10 20 0 10 0 0 0 0 20 0 0 0 0 0 0 10 20 0 10 0 0 20 0 0 10 20 0 10 0 0 0 20 0 0 0 0 10 20 0 10 0 0 0 20 0 0 0 0 10 20 0 10 0 0 0 20 0 0 0 0 10 20 0 10 0 0 0 20 0 0 0 0 10 20 0 10 0 0 0 20 0 0 0 0 10 20 0 10 10 0 0 0 0 20 0 0 0 0 10 20 0 10 0 0 0 20 0 0 0 0 10 20 0 10 0 0 0 20 0 0 0 0 10 20 0 10 0 0 0 20 0 0 0 0 10 20 0 10 0 0 0 20 0 0 0 0 10 20 0 10 0 0 0 20 0 0 0 0 10 0 0 0 20 0 0 0 0 40 40 0 0 40 0 0 0 40 0 0 0 0 0 40 40 0 0 40 0 0 40 0 0 0 0 0 0 40 40 0 0 40 0 0 0 40 0 0 0 0 0 0 40 40 0 0 0 0 0 0 0 40 0 0 40 0 0 0 0 40 40 0 0 0 0 40 0 0 40 40 40 0 0 0 0 0 0 0 0 40 0 40 0 0 40 40 0 40 0 0 40 0 0 0 40 40 0 0 0 0 0 0 0 0 0 40 0 0 0 40 0 0 0 0 0 40 40 0 0 0 0 0 0 0 0 0 40 0 0 40 0 0 0 40 40 0 0 0 0 0 0 0 0 0 40 0 0 40 0 0 0 40 40 0 0 0 0 0 0 0 0 0 40 0 0 40 0 0 0 40 40 0 0 0 0 0 0 0 0 0 40 0 0 40 0 0 0 40 40 0 0 0 0 0 0 0 0 0 40 0 0 40 0 0 0 40 40 0 0 0 0 0 0 0 0 0 40 0 0 40 0 0 0 40 40 0 0 0 0 0 0 0 0 0 40 0 0 40 0 0 0 40 40 0 0 0 0 0 0 0 0 40 40 0 0 0 40 40 0 0 0 0 40 40 0 40 40 0 0 0 0 0 0 0 40 40 0 40 40 0 0 0 0 0 0 0 40 40 0 40 40 0 0 0 0 0 0 0 0 0 40 0 0 40 0 0 0 40 40 0 0 0 0 0 0 0 0 40 40 0 0 0 40 40 0 0 0 0 0 0 0 0 0 40 40 40 40 0 40 40 0 0 0 0 0 0 0 40 40 0 40 40 0 0 0 0 0 0 0 0 0 40 0 0 40 0 0 0 40 40 0 0 0 0 0 0 0 0 0 40 0 0 40 0 0 0 40 40 0 0 0 0 0 0 0 0 0 40 0 0 40 0 0 0 40 40 0 0 0 0 0 0 0 0 0 40 0 0 40 0 0 0 40 40 0 0 0 0 0 0 0 0 0 40 0 0 40 0 0 0 40 40 0 0 0 0 0 0 0 0 0 40 0 0 40 0 0 0 40 40 0 0 0 0 0 0 0 0 0 40 0 0 40 0 0 0 40 40 0 0 0 0 0 0 0 0 0 40 0 0 40 0 0 0 40 40 0 0 0 0 0 0 0 0 0 40 0 0 40 0 0 0 40 40 0 0 0 0 0 0 0 0 0 40 0 0 40 0 0 0 40 40 0 0 0 0 0 0 0 0 0 40 0 0 40 0 0 0 40 40 0 0 0 0 0 0 0 0 0 40 0 0 40 0 0 0 40 40 0 0 0 0 0 0 0 0 0 40 40 0 0 0 0 0 0 0 0 0 40 40 0 0 40 40 0 0 0 40 40 0 0 0 0 0 0 0 40 40 0 40 40 0 0 0 0 0 0 0 0 40 0 0 0 0 0 30 30 0 30 0 0 0 30 0 0 0 0 0 0 30 30 0 0 0 0 0 0 0 0 0 30 30 0 0 30 0 0 30 0 0 0 0 0 0 30 30 0 30 0 0 0 30 0 0 0 0 0 0 0 0 0 30 30 0 0 30 0 0 0 30 0 0 0 0 0 0 0 0 0 30 30 0 0 30 0 0 0 30 0 0 0 0 0 30 30 0 0 30 30 0 0 0 30 30 0 0 0 0 0 0 0 30 30 0 0 0 0 0 0 0 0 30 30 0 30 0 0 0 30 0 0 0 0 0 0 0 30 30 0 0 30 0 0 0 30 30 0 0 0 0 0 0 0 0 0 0 0 0 0 30 30 0 0 30 0 0 30 0 0 0 0 0 0 30 30 0 0 30 30 0 0 0 0 0 0 0 0 30 30 0 0 30 0 0 0 30 0 0 0 0 0 0 0 0 0 0 0 30 30 0 30 0 0 0 30 0 0 0 30 30 0 0 30 0 0 0 0 30 0 0 0 0 0 0 0 0 30 30 0 0 30 0 0 30 0 0 0 0 0 0 30 30 0 30 0 0 0 0 30 0 0 0 0 0 0 0 0 30 30 0 30 0 0 30 0 0 30 30 0 30 0 0 0 30 0 0 0 0 0 0 0 30 30 0 0 30 0 0 0 0 30 0 0 0 0 0 0 0 0 30 30 0 0 30 0 0 30 0 0 0 0 0 0 30 30 0 0 30 0 0 0 30 0 0 0 0 0 0 0 0 30 30 0 0 30 0 0 0 0 30 0 0 0 0 0 0 0 0 0 0 30 30 0 30 0 0 0 30 0 0 0 0 0 0 30 30 0 0 30 0 0 0 30 0 0 0 0 0 0 0 0 0 0 0 0 30 30 0 0 30 0 0 30 0 0 0 0 0 0 30 30 0 0 30 0 0 0 0 30 0 0 0 0 0 0 0 0 0 0 0 0 0 30 30 0 30 0 0 0 30 0 0 0 0 0 0 0 0 0 30 30 0 30 0 0 0 0 30 0 0 0 0 0 0 0 0 0 30 30 0 0 0 30 0 0 0 30 0 0 0 0 0 0 0 0 0 0 0 30 30 0 30 0 0 0 30 0 0 0 0 0 0 0 0 30 30 0 0 30 0 0 0 30 0 0 0 0 0 0 0 0 0 30 30 0 0 30 0 0 0 30 0 30 0 0 0 0 0 30 30 0 30 0 0 0 0 30 0 0 0 0 0 0 0 0 30 30 0 0 30 0 0 0 30 0 0 0 0 0 0 30 30 0 0 30 0 0 0 0 30 0 0 0 0 0 0 0 30 30 0 0 30 0 0 30 0 0 0 0 0 0 30 30 0 0 30 0 0 0 30 0 0 0 0 0 0 0 0 30 30 0 0 30 0 0 0 30 0 0 0 0 0 0 0 0 30 30 0 30 0 0 0 0 30 0 0 0 0 0 0 0 0 30 30 0 0 30 0 0 0 30 0 0 0 30 30 0 0 30 0 0 0 30 0 0 0 0 0 0 0 0 0 0 0 30 30 0 0 30 0 0 30 0 0 0 30 30 0 30 0 0 0 0 30 0 0 0 0 0 0 0 0 0 0 0 0 0 0 30 30 0 0 30 0 0 0 0 30 0 0 0 0 0 0 0 0 30 30 0 0 30 0 0 30 0 0 0 30 30 0 30 0 0 0 0 30 0 0 0 0 0 0 0 0 30 30 0 0 0 0 30 0 0 0 0 0 0 0 0 0 30 30 0 0 30 0 0 30 0 0 0 0 0 0 30 30 0 0 30 0 0 0 30 0 0 0 0 0 0 0 0 30 30 0 0 30 0 0 30 0 0 0 30 30 0 0 30 0 0 0 0 30 30 0 0 0 0 0 0 0 0 0 0 0 0 0 0 30 30 0 30 0 0 0 0 0 30 30 0 0 0 30 30 0 0 0 0 0 30 0 0 0 30 0 0 0 0 0 0 20 20 0 0 20 0 0 0 20 0 0 0 0 0 0 0 20 20 0 0 0 20 0 0 20 0 0 0 0 0 20 20 0 0 0 0 0 0 0 20 20 0 20 20 0 0 0 0 0 0 0 0 20 0 0 20 0 20 20 0 0 0 20 0 0 20 0 20 20 0 0 0 0 20 20 20 20 0 0 0 0 20 20 20 20 0 0 0 0 20 20 20 20 0 0 0 0 20 20 20 20 0 0 0 0 20 20 20 20 0 0 0 0 20 20 20 20 0 0 0 0 20 20 0 20 20 0 0 0 0 0 0 20 20 0 0 20 20 0 0 0 0 0 0 0 0 20 20 0 0 20 20 0 0 0 0 0 0 0 0 20 20 20 20 0 0 0 0 0 0 0 0 20 20 0 20 20 0 0 0 0 20 20 0 0 20 20 0 0 0 0 0 0 20 20 0 0 20 20 0 0 0 0 0 0 0 0 0 0 0 0 20 20 20 20 0 0 0 0 0 0 0 0 20 20 20 20 0 0 0 0 20 20 20 20 0 0 0 0 20 20 20 20 0 0 0 0 20 20 20 20 0 0 0 0 20 20 20 20 0 0 0 0 20 20 20 20 0 0 0 0 20 20 20 20 0 0 0 0 20 20 20 20 0 0 0 0 20 20 20 20 0 0 0 0 20 20 20 20 0 0 0 0 20 20 20 20 0 0 0 0 20 20 0 20 20 0 0 0 0 20 20 0 20 20 0 0 0 0 0 0 20 20 0 20 20 0 0 0 0 0 0 0 0 0 0 0 0 0 20 0 0 0 20 20 0 0 0 0 20 0 0 20 20 0 0 0 0 0 0 20 0 0 20 0 0 0 0 0 0 0 0 0 0 0 0 20 20 0 0 0 0 0 0 0 0 0 0 0 0 20 0 20 0 0 0 0 0 0 0 0 0 0 0 0 0 0 20 20 0 0 0 0 0 0 0 0 0 0 20 0 20 0 0 0 0 0 0 0 20 20 0 0 0 0 0 0 0 0 0 20 0 0 20 0 0 0 0 0 0 0 0 0 0 0 0 20 20 0 0 0 0 0 0 0 0 20 0 20 0 0 0 0 0 0 0 0 20 20 0 0 0 0 0 0 0 0 0 0 0 0 20 0 20 20 0 0 0 0 0 0 0 0 0 0 0 20 20 0 0 0 0 0 0 0 0 20 0 0 20 0 0 0 0 0 0 0 0 20 20 0 0 0 0 20 0 0 20 0 0 0 0 0 0 0 0 0 0 0 0 0 0 0 0 0 0 0 0 0 0 20 20 0 0 0 0 0 0 0 0 0 0 0 0 20 0 20 0 0 0 0 0 0 0 0 20 20 0 0 0 0 0 0 0 0 0 0 0 0 20 0 20 0 0 0 0 0 0 0 0 0 0 0 20 20 0 0 0 0 0 0 20 0 20 0 0 0 0 0 0 0 20 20 0 0 0 0 0 0 0 0 0 0 0 0 20 0 0 20 0 0 0 0 0 0 0 0 0 0 0 0 0 0 0 0 0 0 20 20 0 0 0 20 0 0 20 0 0 0 0 0 0 0 0 0 0 0 0 20 20 0 0 0 0 0 0 0 0 0 0 0 0 0 0 0 0 0 0 0 20 0 0 20 20 0 0 0 0 0 0 0 0 0 0 0 0 0 20 20 0 0 0 0 0 20 0 0 0 20 0 0 0 0 0 0 0 0 0 0 0 0 0 0 0 20 20 0 0 0 0 20 0 0 0 0 0 0 0 0 0 0 0 0 0 0 20 20 0 0 0 0 20 0 0 0 20 20 0 0 0 0 0 0 0 0 0 0 0 0 0 0 0 0 0 0 0 0 0 0 20 20 0 0 0 0 0 0 0 0 0 20 0 0 20 0 0 0 0 0 0 0 0 0 0 20 20 0 0 0 0 0 0 0 0 0 0 0 0 0 20 0 0 20 0 0 0 0 0 0 0 0 0 0 0 0 0 20 20 0 0 0 20 0 0 20 0 0 0 0 0 0 0 0 0 0 0 0 0 20 20 0 0 0 0 0 0 0 0 0 0 0 20 0 0 0 20 0 0 0 0 0 0 0 0 0 0 0 0 20 20 0 0 0 0 0 0 0 0 20 0 0 0 20 0 0 0 0 0 0 0 0 0 0 0 0 0 0 20 20 0 0 0 20 0 0 0 20 0 0 0 0 0 0 0 0 0 0 0 20 20 0 0 0 0 20 0 0 0 20 0 0 0 0 0 0 0 0 0 0 0 0 0 0 0 0 0 20 20 0 0 0 20 0 0 0 20 0 0 0 0 0 0 0 0 0 0 0 0 0 0 0 0 0 20 20 0 0 20 0 0 0 20 0 0 0 0 0 0 0 20 20 0 0 0 0 20 0 0 0 20 0 0 0 0 0 0 0 0 0 0 0 0 0 0 0 20 20 0 0 0 0 0 0 0 0 20 0 0 0 0 20 0 0 0 0 0 0 0 0 0 0 0 0 0 0 0 0 0 20 0 0 0 20 0 0 0 0 0 0 0 0 0 0 0 0 0 0 0 0 0 20 20 0 0 0 0 0 0 0 0 0 0 0 0 0 20 0 0 0 20 0 0 0 0 0 0 0 0 0 0 0 0 0 0 0 0 0 20 20 0 0 0 0 20 0 0 0 20 0 0 0 0 0 0 0 0 0 0 0 0 0 0 0 0 0 0 20 20 0 0 0 0 20 0 0 20 0 0 0 0 0 0 0 0 0 0 0 0 0 0 20 20 0 0 0 0 20 0 0 0 20 0 0 0 0 0 0 0 0 0 0 20 20 0 0 0 20 0 0 0 20 0 0 0 0 0 0 0 0 0 0 0 0 0 0 0 0 0 20 20 0 0 0 0 20 0 0 0 20 0 0 0 0 0 0 0 0 0 0 0 20 20 0 0 0 20 0 0 0 20 0 0 0 0 0 0 0 0 0 0 0 0 0 0 0 20 20 0 0 0 0 0 0 0 20 0 0 0 0 20 0 0 0 0 0 0 0 0 0 0 0 0 0 0 0 0 0 0 20 20 0 0 0 0 0 0 20 0 0 0 20 0 0 0 0 0 0 0 0 0 0 0 0 20 20 0 0 0 0 0 0 20 0 0 20 0 0 0 0 0 0 0 0 0 0 0 0 0 20 20 0 0 0 0 0 0 0 0 0 0 0 0 20 0 0 0 0 20 0 0 0 0 0 0 0 0 0 0 0 0 20 20 0 0 0 0 0 0 0 20 0 0 20 0 0 0 0 0 0 0 0 0 0 20 20 0 0 0 0 0 0 0 0 0 0 0 0 0 0 20 0 0 0 0 20 20 0 0 0 0 0 0 0 0 0 0 0 0 0 0 0 0 0 0 20 20 0 0 0 20 0 0 0 0 0 0 0 0 0 0 0 0 0 0 0 0 0 20 20 0 0 0 0 0 0 20 0 0 0 20 0 0 0 0 0 0 0 0 0 0 0 0 0 0 0 0 0 20 20 0 0 0 0 0 0 0 0 0 0 0 0 0 0 0 20 0 0 20 20 0 0 0 0 0 0 0 20 20 0 0 0 20 0 0 20 0 0 0 0 0 0 0 0 0 0 20 20 0 0 0 0 20 0 0 0 20 0 0 0 0 0 0 0 0 0 0 0 0 0 0 20 20 0 0 0 0 0 0 0 20 0 0 20 0 0 0 0 0 0 0 0 0 0 0 0 0 20 20 0 0 0 0 0 0 0 0 0 0 0 20 0 20 0 0 0 0 0 0 0 0 0 0 20 20 0 0 0 0 0 0 0 0 0 0 0 0 0 0 20 0 20 0 0 0 0 0 0 0 0 0 0 0 0 0 0 20 20 0 0 0 20 0 0 20 0 0 0 0 0 0 0 0 0 0 0 0 0 0 0 0 20 20 0 0 0 0 0 0 0 0 0 0 0 20 0 20 0 0 0 0 0 0 0 0 0 0 0 0 0 0 0 0 0 0 20 20 0 0 0 0 0 0 0 0 0 0 0 0 20 20 20 0 0 0 0 0 0 0 0 0 0 20 20 0 0 0 0 0 0 0 0 0 0 0 0 20 20 0 0 0 0 0 0 0 0 0 0 0 20 20 0 0 0 0 0 0 0 0 0 0 0 0 0 0 0 0 0 20 20 0 0 0 0 0 0 0 0 0 0 20 20 0 0 0 0 0 0 0 0 0 20 0 20 0 0 0 0 0 0 0 0 0 0 0 0 0 20 20 0 0 0 0 0 0 0 0 0 20 0 0 20 0 0 0 0 0 0 0 0 0 0 0 0 0 0 0 0 0 0 20 0 0 20 0 0 0 0 0 0 0 0 0 0 20 20 0 20 0 0 0 20 0 0 0 0 20 20 0 0 20 0 0 0 0 20 0 0 0 0 0 0 0 0 20 20 0 20 0 0 20 0 0 0 0 20 20 0 0 20 0 0 0 20 0 0 0 0 0 0 0 0 0 20 20 0 20 0 0 0 20 0 0 0 0 0 0 20 20 0 20 0 0 20 0 0 20 20 0 20 0 0 0 20 0 0 0 0 20 20 0 20 0 0 0 20 0 0 0 0 20 20 0 20 0 0 0 20 0 0 0 0 20 20 0 0 20 0 0 0 20 0 0 0 0 0 0 20 20 0 20 0 0 0 20 0 0 0 0 0 0 20 20 0 20 0 0 0 20 0 0 0 0 0 0 0 20 20 0 0 20 0 0 0 20 0 0 0 20 20 0 0 20 0 0 0 20 0 0 0 0 0 0 0 0 20 20 0 20 0 0 0 20 0 0 0 0 0 0 0 0 0 20 20 0 0 20 0 0 20 0 0 0 0 20 20 0 20 0 0 0 20 0 0 0 0 0 0 20 20 0 20 0 0 0 20 0 0 0 0 20 20 0 20 0 0 0 20 0 0 0 0 20 20 0 20 0 0 0 20 0 0 0 0 20 20 0 20 0 0 0 20 0 0 0 0 0 0 0 20 20 0 20 0 0 0 20 0 0 0 0 0 0 0 20 20 0 20 0 20 0 0 20 0 0 20 20 0 20 0 0 0 0 20 0 0 0 0 0 0 20 20 0 0 20 0 0 0 0 20 0 0 0 0 0 0 0 0 0 0 0 20 0 0 0 20 0 0 0 0 0 0 40 0 40 0 0 40 0 0 0 0 40 40 0 40 0 0 0 0 0 40 0 40 0 40 0 0 0 0 0 0 0 0 0 40 0 0 40 0 0 40 0 0 0 0 0 0 0 0 0 0 0 0 0 0 40 0 0 40 0 40 0 0 0 0 0 0 0 40 40 0 0 0 40 40 0 0 0 0 0 0 0 0 0 0 0 40 0 40 0 40 0 0 40 40 0 40 0 0 0 0 0 0 0 0 40 0 40 0 0 40 0 0 0 0 0 0 40 0 40 0 0 0 0 0 0 0 0 0 0 0 40 0 40 0 40 0 0 40 0 0 40 0 40 0 0 0 0 0 0 40 0 0 40 0 40 0 0 0 0 0 0 40 0 0 40 0 40 0 0 0 0 0 0 40 40 0 0 0 40 0 0 0 0 0 